
  ___ ___ ___ _ _ _  
 |   |   |_  | | | | 
 | | | | | . | | | | 
 |__ |  _|___|_____|  22.1.1b1
 |___|_|             

User:   s173965@n-62-29-35
Date:   Wed Apr 20 15:43:19 2022
Arch:   x86_64
Pid:    20095
Python: 3.8.5
gpaw:   /zhome/3e/3/126995/10302-venv/gpaw/gpaw (4eb9f4db50)
_gpaw:  /zhome/3e/3/126995/10302-venv/gpaw/
        _gpaw.cpython-38-x86_64-linux-gnu.so (4eb9f4db50)
ase:    /zhome/3e/3/126995/10302-venv/ase/ase (version 3.23.0b1-0aae5214fa)
numpy:  /zhome/3e/3/126995/10302-venv/lib/python3.8/site-packages/numpy (version 1.22.1)
scipy:  /zhome/3e/3/126995/10302-venv/lib/python3.8/site-packages/scipy (version 1.7.3)
libxc:  4.3.4
units:  Angstrom and eV
cores: 8
OpenMP: False
OMP_NUM_THREADS: 1

Input parameters:
  kpts: {gamma: True,
         size: (30, 30, 1)}
  mode: {ecut: 600.0,
         name: pw}
  occupations: {fixmagmom: False,
                name: fermi-dirac,
                width: 0.01}

System changes: positions, numbers, cell, pbc, initial_charges, initial_magmoms 

Initialize ...

B-setup:
  name: Boron
  id: 02e2e0e88ef95f403158802f6b0f4231
  Z: 5.0
  valence: 3
  core: 2
  charge: 0.0
  file: /zhome/86/d/1666/PAW/gpaw-setups-0.9.20000/B.LDA.gz
  compensation charges: gauss, rc=0.20, lmax=2
  cutoffs: 1.14(filt), 1.42(core),
  valence states:
                energy  radius
    2s(2.00)    -9.383   0.635
    2p(1.00)    -3.714   0.635
    *s          17.828   0.635
    *p          23.498   0.635
    *d           0.000   0.635

  Using partial waves for B as LCAO basis

N-setup:
  name: Nitrogen
  id: c467cdfa1b75f62c8f7a0469921b1cfb
  Z: 7.0
  valence: 5
  core: 2
  charge: 0.0
  file: /zhome/86/d/1666/PAW/gpaw-setups-0.9.20000/N.LDA.gz
  compensation charges: gauss, rc=0.18, lmax=2
  cutoffs: 1.11(filt), 0.96(core),
  valence states:
                energy  radius
    2s(2.00)   -18.420   0.603
    2p(3.00)    -7.237   0.529
    *s           8.791   0.603
    *p          19.974   0.529
    *d           0.000   0.577

  Using partial waves for N as LCAO basis

Reference energy: -2133.488728

Spin-paired calculation

Convergence criteria:
 Maximum [total energy] change in last 3 cyles: 0.0005 eV / electron
 Maximum integral of absolute [dens]ity change: 0.0001 electrons / valence electron
 Maximum integral of absolute [eigenst]ate change: 4e-08 eV^2 / valence electron
 Maximum number of scf [iter]ations: 333
 (Square brackets indicate name in SCF output, whereas a 'c' in
 the SCF output indicates the quantity has converged.)

Symmetries present (total): 12

  ( 1  1  0)  ( 1  1  0)  ( 1  0  0)  ( 1  0  0)  ( 0  1  0)  ( 0  1  0)
  ( 0 -1  0)  ( 0 -1  0)  ( 0  1  0)  ( 0  1  0)  (-1 -1  0)  (-1 -1  0)
  ( 0  0  1)  ( 0  0 -1)  ( 0  0  1)  ( 0  0 -1)  ( 0  0  1)  ( 0  0 -1)

  ( 0 -1  0)  ( 0 -1  0)  (-1  0  0)  (-1  0  0)  (-1 -1  0)  (-1 -1  0)
  (-1  0  0)  (-1  0  0)  ( 1  1  0)  ( 1  1  0)  ( 1  0  0)  ( 1  0  0)
  ( 0  0  1)  ( 0  0 -1)  ( 0  0  1)  ( 0  0 -1)  ( 0  0  1)  ( 0  0 -1)

900 k-points: 30 x 30 x 1 Monkhorst-Pack grid + [1/60,1/60,0.000000]
91 k-points in the irreducible part of the Brillouin zone
       k-points in crystal coordinates                weights
   0:     0.00000000    0.00000000    0.00000000          1/900
   1:     0.03333333    0.00000000    0.00000000          6/900
   2:     0.06666667   -0.03333333    0.00000000          6/900
   3:     0.06666667    0.00000000    0.00000000          6/900
   4:     0.10000000   -0.03333333    0.00000000         12/900
   5:     0.10000000    0.00000000    0.00000000          6/900
   6:     0.13333333   -0.06666667    0.00000000          6/900
   7:     0.13333333   -0.03333333    0.00000000         12/900
   8:     0.13333333    0.00000000    0.00000000          6/900
   9:     0.16666667   -0.06666667    0.00000000         12/900
          ...
  90:     0.50000000    0.50000000    0.00000000          3/900

Wave functions: Plane wave expansion
  Cutoff energy: 600.000 eV
  Number of coefficients (min, max): 2639, 2771
  Pulay-stress correction: 0.000000 eV/Ang^3 (de/decut=0.000000)
  Using FFTW library
  ScaLapack parameters: grid=1x1, blocksize=None
  Wavefunction extrapolation:
    Improved wavefunction reuse through dual PAW basis 

Occupation numbers: Fermi-Dirac: width=0.0100 eV
 

Eigensolver
   Davidson(niter=2) 

Densities:
  Coarse grid: 15*15*90 grid
  Fine grid: 30*30*180 grid
  Total Charge: 0.000000 

Density mixing:
  Method: separate
  Backend: pulay
  Linear mixing parameter: 0.05
  Mixing with 5 old densities
  Damping of long wave oscillations: 50 

Hamiltonian:
  XC and Coulomb potentials evaluated on a 30*30*180 grid
  Using the LDA Exchange-Correlation functional
  External potential:
    NoExternalPotential
 

Memory estimate:
  Process memory now: 92.41 MiB
  Calculator: 21.74 MiB
    Density: 9.18 MiB
      Arrays: 4.02 MiB
      Localized functions: 3.62 MiB
      Mixer: 1.54 MiB
    Hamiltonian: 2.71 MiB
      Arrays: 2.63 MiB
      XC: 0.00 MiB
      Poisson: 0.00 MiB
      vbar: 0.09 MiB
    Wavefunctions: 9.84 MiB
      Arrays psit_nG: 3.72 MiB
      Eigensolver: 0.56 MiB
      Projections: 0.03 MiB
      Projectors: 4.28 MiB
      PW-descriptor: 1.24 MiB

Total number of cores used: 8
Parallelization over k-points: 8

Number of atoms: 2
Number of atomic orbitals: 8
Number of bands in calculation: 8
Number of valence electrons: 8
Bands to converge: occupied

... initialized

Initializing position-dependent things.

Density initialized from atomic densities
Creating initial wave functions:
  8 bands from LCAO basis set

                    
                    
                    
                    
        B N         
                    
                    
                    
                    

Positions:
   0 B      0.000000    1.449303    7.500000    ( 0.0000,  0.0000,  0.0000)
   1 N      1.255133    0.724652    7.500000    ( 0.0000,  0.0000,  0.0000)

Unit cell:
           periodic     x           y           z      points  spacing
  1. axis:    yes    2.510267    0.000000    0.000000    15     0.1449
  2. axis:    yes   -1.255133    2.173955    0.000000    15     0.1449
  3. axis:    yes    0.000000    0.000000   15.000000    90     0.1667

  Lengths:   2.510267   2.510267  15.000000
  Angles:   90.000000  90.000000 120.000000

Effective grid spacing dv^(1/3) = 0.1593

     iter     time        total  log10-change:
                         energy  eigst   dens
iter:   1 15:43:21   -20.850726
iter:   2 15:43:22   -20.528951  -0.82  -0.66
iter:   3 15:43:22   -19.254660  -0.74  -0.71
iter:   4 15:43:23   -19.237558  -1.90  -1.10
iter:   5 15:43:23   -19.142473  -1.27  -1.14
iter:   6 15:43:23   -19.121712  -1.94  -1.57
iter:   7 15:43:24   -19.127785  -2.91  -1.77
iter:   8 15:43:24   -19.110012  -2.38  -1.68
iter:   9 15:43:24   -19.109872  -3.51  -2.58
iter:  10 15:43:25   -19.109878c -4.56  -3.16
iter:  11 15:43:25   -19.109879c -5.27  -3.29
iter:  12 15:43:25   -19.109888c -5.27  -3.36
iter:  13 15:43:26   -19.109883c -6.07  -3.40
iter:  14 15:43:26   -19.109884c -6.98  -3.49
iter:  15 15:43:26   -19.109884c -5.29  -3.47
iter:  16 15:43:27   -19.109883c -6.91  -3.50
iter:  17 15:43:27   -19.109881c -6.22  -3.54
iter:  18 15:43:27   -19.109880c -6.41  -3.86
iter:  19 15:43:28   -19.109880c -7.37  -4.58c
iter:  20 15:43:28   -19.109880c -8.01c -4.38c

Converged after 20 iterations.

Dipole moment: (-0.484429, 0.279685, -0.000000) |e|*Ang

Energy contributions relative to reference atoms: (reference = -2133.488728)

Kinetic:        +16.108964
Potential:      -16.320156
External:        +0.000000
XC:             -18.895233
Entropy (-ST):   -0.000000
Local:           -0.003455
--------------------------
Free energy:    -19.109880
Extrapolated:   -19.109880

Showing only first 2 kpts
 Kpt  Band  Eigenvalues  Occupancy
  0     2     -5.28287    2.00000
  0     3     -5.28285    2.00000
  0     4      0.87681    0.00000
  0     5      2.03766    0.00000

  1     2     -5.37910    2.00000
  1     3     -5.32744    2.00000
  1     4      0.91399    0.00000
  1     5      2.07072    0.00000


Fermi level: -3.30262

Gap: 4.539 eV
Transition (v -> c):
  (s=0, k=36, n=3, [0.33, 0.33, 0.00]) -> (s=0, k=36, n=4, [0.33, 0.33, 0.00])
Diagonalizing full Hamiltonian (500 lowest bands)
Matrix size (min, max): 2639, 2771
Approximate memory used per core to store H_GG, S_GG: 351.491 MB
Notice: Up to twice the amount of memory might be allocated
during diagonalization algorithm.
The least memory is required when the parallelization is purely
over states (bands) and not k-points, set GPAW(..., parallel={'kpt': 1}, ...).
155.5750653743744s |----------------------------------------| Time: 161.798s
Writing to BN_gs_fulldiag.gpw (mode='all')

Timing:                              incl.     excl.
-----------------------------------------------------------
Full diag:                         178.959    17.261   7.2% |--|
 Build H and S:                     16.584    16.584   6.9% |--|
 Diagonalize:                      144.962   144.962  60.3% |-----------------------|
 Projections:                        0.150     0.150   0.1% |
 Redistribute:                       0.002     0.002   0.0% |
Hamiltonian:                         0.061     0.001   0.0% |
 Atomic:                             0.030     0.030   0.0% |
  XC Correction:                     0.000     0.000   0.0% |
 Calculate atomic Hamiltonians:      0.003     0.003   0.0% |
 Communicate:                        0.000     0.000   0.0% |
 Initialize Hamiltonian:             0.000     0.000   0.0% |
 Poisson:                            0.001     0.001   0.0% |
 XC 3D grid:                         0.026     0.026   0.0% |
LCAO initialization:                 0.343     0.068   0.0% |
 LCAO eigensolver:                   0.092     0.001   0.0% |
  Calculate projections:             0.000     0.000   0.0% |
  DenseAtomicCorrection:             0.001     0.001   0.0% |
  Distribute overlap matrix:         0.000     0.000   0.0% |
  Orbital Layouts:                   0.015     0.015   0.0% |
  Potential matrix:                  0.073     0.073   0.0% |
  Sum over cells:                    0.002     0.002   0.0% |
 LCAO to grid:                       0.101     0.101   0.0% |
 Set positions (LCAO WFS):           0.082     0.018   0.0% |
  Basic WFS set positions:           0.001     0.001   0.0% |
  Basis functions set positions:     0.000     0.000   0.0% |
  P tci:                             0.023     0.023   0.0% |
  ST tci:                            0.030     0.030   0.0% |
  mktci:                             0.010     0.010   0.0% |
PWDescriptor:                        0.180     0.180   0.1% |
SCF-cycle:                           7.061     0.499   0.2% |
 Davidson:                           4.935     0.985   0.4% |
  Apply H:                           0.704     0.670   0.3% |
   HMM T:                            0.034     0.034   0.0% |
  Subspace diag:                     0.957     0.018   0.0% |
   calc_h_matrix:                    0.835     0.123   0.1% |
    Apply H:                         0.712     0.673   0.3% |
     HMM T:                          0.038     0.038   0.0% |
   diagonalize:                      0.039     0.039   0.0% |
   rotate_psi:                       0.066     0.066   0.0% |
  calc. matrices:                    2.098     0.667   0.3% |
   Apply H:                          1.431     1.361   0.6% |
    HMM T:                           0.070     0.070   0.0% |
  diagonalize:                       0.089     0.089   0.0% |
  rotate_psi:                        0.101     0.101   0.0% |
 Density:                            0.827     0.000   0.0% |
  Atomic density matrices:           0.028     0.028   0.0% |
  Mix:                               0.165     0.165   0.1% |
  Multipole moments:                 0.002     0.002   0.0% |
  Pseudo density:                    0.631     0.358   0.1% |
   Symmetrize density:               0.274     0.274   0.1% |
 Hamiltonian:                        0.787     0.013   0.0% |
  Atomic:                            0.206     0.205   0.1% |
   XC Correction:                    0.000     0.000   0.0% |
  Calculate atomic Hamiltonians:     0.065     0.065   0.0% |
  Communicate:                       0.001     0.001   0.0% |
  Poisson:                           0.015     0.015   0.0% |
  XC 3D grid:                        0.487     0.487   0.2% |
 Orthonormalize:                     0.015     0.001   0.0% |
  calc_s_matrix:                     0.004     0.004   0.0% |
  inverse-cholesky:                  0.001     0.001   0.0% |
  projections:                       0.007     0.007   0.0% |
  rotate_psi_s:                      0.002     0.002   0.0% |
Set symmetry:                        0.046     0.046   0.0% |
Other:                              53.895    53.895  22.4% |--------|
-----------------------------------------------------------
Total:                                       240.546 100.0%

Memory usage: 799.75 MiB
Date: Wed Apr 20 15:47:20 2022
