
  ___ ___ ___ _ _ _  
 |   |   |_  | | | | 
 | | | | | . | | | | 
 |__ |  _|___|_____|  22.1.1b1
 |___|_|             

User:   s173965@slid.fysik.dtu.dk
Date:   Tue May 10 21:47:11 2022
Arch:   x86_64
Pid:    25347
CWD:    /home/niflheim/s173965/dft-superfluids/Bandstructure_folder
Python: 3.8.6
gpaw:   /home/niflheim/s173965/venv/gpaw/gpaw (a6784661f4)
_gpaw:  /home/niflheim/s173965/venv/gpaw/build/lib.linux-x86_64-broadwell-3.8/
        _gpaw.cpython-38-x86_64-linux-gnu.so (a6784661f4)
ase:    /home/niflheim/s173965/venv/ase/ase (version 3.23.0b1-1865c9075a)
numpy:  /home/modules/software/SciPy-bundle/2020.11-foss-2020b/lib/python3.8/site-packages/numpy (version 1.19.4)
scipy:  /home/modules/software/SciPy-bundle/2020.11-foss-2020b/lib/python3.8/site-packages/scipy (version 1.5.4)
libxc:  4.3.4
units:  Angstrom and eV
cores: 1
OpenMP: False
OMP_NUM_THREADS: 1

Reading from ./out/MoS2_PBE_gs.gpw
Read dipole, energy, free_energy, magmom, magmoms
Reading input parameters:
  kpts: {gamma: True,
         size: [30, 30, 1]}
  mode: {ecut: 500.0,
         name: pw}
  occupations: {name: fermi-dirac,
                width: 0.01}
  xc: PBE

Initialize ...

Mo-setup:
  name: Molybdenum
  id: 296a29d4664fe6c6f68623909fe0870f
  Z: 42.0
  valence: 14
  core: 28
  charge: 0.0
  file: /home/modules/software/GPAW-setups/0.9.20000/Mo.PBE.gz
  compensation charges: gauss, rc=0.38, lmax=2
  cutoffs: 2.16(filt), 1.42(core),
  valence states:
                energy  radius
    4s(2.00)   -64.307   1.238
    5s(1.00)    -4.084   1.238
    4p(6.00)   -38.491   1.296
    5p(0.00)    -1.044   1.296
    4d(5.00)    -3.754   1.296
    *d          23.458   1.296

  Using partial waves for Mo as LCAO basis

S-setup:
  name: Sulfur
  id: ca434db9faa07220b7a1d8cb6886b7a9
  Z: 16.0
  valence: 6
  core: 10
  charge: 0.0
  file: /home/modules/software/GPAW-setups/0.9.20000/S.PBE.gz
  compensation charges: gauss, rc=0.24, lmax=2
  cutoffs: 1.77(filt), 1.66(core),
  valence states:
                energy  radius
    3s(2.00)   -17.254   0.974
    3p(4.00)    -7.008   0.979
    *s           9.957   0.974
    *p          20.203   0.979
    *d           0.000   0.900

  Using partial waves for S as LCAO basis

Reference energy: -131849.312427

Spin-paired calculation

Convergence criteria:
 Maximum [total energy] change in last 3 cyles: 0.0005 eV / electron
 Maximum integral of absolute [dens]ity change: 0.0001 electrons / valence electron
 Maximum integral of absolute [eigenst]ate change: 4e-08 eV^2 / valence electron
 Maximum number of scf [iter]ations: 333
 (Square brackets indicate name in SCF output, whereas a 'c' in
 the SCF output indicates the quantity has converged.)

Symmetries present (total): 12

  ( 1  1  0)  ( 1  1  0)  ( 1  0  0)  ( 1  0  0)  ( 0  1  0)  ( 0  1  0)
  ( 0 -1  0)  ( 0 -1  0)  ( 0  1  0)  ( 0  1  0)  (-1 -1  0)  (-1 -1  0)
  ( 0  0  1)  ( 0  0 -1)  ( 0  0  1)  ( 0  0 -1)  ( 0  0  1)  ( 0  0 -1)

  ( 0 -1  0)  ( 0 -1  0)  (-1  0  0)  (-1  0  0)  (-1 -1  0)  (-1 -1  0)
  (-1  0  0)  (-1  0  0)  ( 1  1  0)  ( 1  1  0)  ( 1  0  0)  ( 1  0  0)
  ( 0  0  1)  ( 0  0 -1)  ( 0  0  1)  ( 0  0 -1)  ( 0  0  1)  ( 0  0 -1)

900 k-points: 30 x 30 x 1 Monkhorst-Pack grid + [1/60,1/60,0.000000]
91 k-points in the irreducible part of the Brillouin zone
       k-points in crystal coordinates                weights
   0:     0.00000000    0.00000000    0.00000000          1/900
   1:     0.03333333    0.00000000    0.00000000          6/900
   2:     0.06666667   -0.03333333    0.00000000          6/900
   3:     0.06666667    0.00000000    0.00000000          6/900
   4:     0.10000000   -0.03333333    0.00000000         12/900
   5:     0.10000000    0.00000000    0.00000000          6/900
   6:     0.13333333   -0.06666667    0.00000000          6/900
   7:     0.13333333   -0.03333333    0.00000000         12/900
   8:     0.13333333    0.00000000    0.00000000          6/900
   9:     0.16666667   -0.06666667    0.00000000         12/900
          ...
  90:     0.50000000    0.50000000    0.00000000          3/900

Wave functions: Plane wave expansion
  Cutoff energy: 500.000 eV
  Number of coefficients (min, max): 9548, 9684
  Pulay-stress correction: 0.000000 eV/Ang^3 (de/decut=0.000000)
  Using FFTW library
  ScaLapack parameters: grid=1x1, blocksize=None
  Wavefunction extrapolation:
    Improved wavefunction reuse through dual PAW basis 

Occupation numbers: Fermi-Dirac: width=0.0100 eV
 

Eigensolver
   Davidson(niter=2) 

Densities:
  Coarse grid: 18*18*224 grid
  Fine grid: 36*36*448 grid
  Total Charge: 0.000000 

Density mixing:
  Method: separate
  Backend: pulay
  Linear mixing parameter: 0.05
  Mixing with 5 old densities
  Damping of long wave oscillations: 50 

Hamiltonian:
  XC and Coulomb potentials evaluated on a 36*36*448 grid
  Using the PBE Exchange-Correlation functional
  External potential:
    NoExternalPotential
 

XC parameters: PBE with 2 nearest neighbor stencil

Memory estimate:
  Process memory now: 205.90 MiB
  Calculator: 466.02 MiB
    Density: 32.72 MiB
      Arrays: 14.40 MiB
      Localized functions: 12.79 MiB
      Mixer: 5.54 MiB
    Hamiltonian: 9.72 MiB
      Arrays: 9.41 MiB
      XC: 0.00 MiB
      Poisson: 0.00 MiB
      vbar: 0.31 MiB
    Wavefunctions: 423.57 MiB
      Arrays psit_nG: 268.93 MiB
      Eigensolver: 3.76 MiB
      Projections: 1.22 MiB
      Projectors: 133.45 MiB
      PW-descriptor: 16.22 MiB

Total number of cores used: 1

Number of atoms: 3
Number of atomic orbitals: 21
Number of bands in calculation: 20
Number of valence electrons: 26
Bands to converge: occupied

... initialized

Input parameters:
  basis: dzp
  convergence: {bands: -10}
  fixdensity: True
  kpts: {cell: Cell([[3.183999999999999, 0.0, 0.0], [-1.5919999999999994, -2.7574248856496513, 0.0], [0.0, 0.0, 0.0]]),
         kpts: [[ 0.          0.          0.        ]
 [ 0.05       -0.05        0.        ]
 [ 0.1        -0.1         0.        ]
 ...
 [ 0.05128205 -0.1025641   0.        ]
 [ 0.02564103 -0.05128205  0.        ]
 [ 0.          0.          0.        ]],
         labelseq: GMKG,
         special_points: {'G': array([0., 0., 0.]), 'M': array([ 0.5, -0.5,  0. ]), 'K': array([ 0.33333333, -0.66666667,  0.        ])}}
  nbands: -20
  symmetry: off

Initialize ...

Mo-setup:
  name: Molybdenum
  id: 296a29d4664fe6c6f68623909fe0870f
  Z: 42.0
  valence: 14
  core: 28
  charge: 0.0
  file: /home/modules/software/GPAW-setups/0.9.20000/Mo.PBE.gz
  compensation charges: gauss, rc=0.38, lmax=2
  cutoffs: 2.16(filt), 1.42(core),
  valence states:
                energy  radius
    4s(2.00)   -64.307   1.238
    5s(1.00)    -4.084   1.238
    4p(6.00)   -38.491   1.296
    5p(0.00)    -1.044   1.296
    4d(5.00)    -3.754   1.296
    *d          23.458   1.296

  LCAO basis set for Mo:
    Name: dzp
    File: /home/modules/software/GPAW-setups/0.9.20000/Mo.dzp.basis.gz
    Number of radial functions: 11
    Number of spherical harmonics: 29
      l=0, rc=3.5469 Bohr: 4s-sz confined orbital
      l=0, rc=10.0469 Bohr: 5s-sz confined orbital
      l=1, rc=4.0781 Bohr: 4p-sz confined orbital
      l=1, rc=14.0938 Bohr: 5p-sz confined orbital
      l=2, rc=7.2031 Bohr: 4d-sz confined orbital
      l=0, rc=2.1250 Bohr: 4s-dz split-valence wave
      l=0, rc=6.1250 Bohr: 5s-dz split-valence wave
      l=1, rc=2.5469 Bohr: 4p-dz split-valence wave
      l=1, rc=8.7656 Bohr: 5p-dz split-valence wave
      l=2, rc=4.2344 Bohr: 4d-dz split-valence wave
      l=1, rc=10.0469 Bohr: p-type Gaussian polarization

S-setup:
  name: Sulfur
  id: ca434db9faa07220b7a1d8cb6886b7a9
  Z: 16.0
  valence: 6
  core: 10
  charge: 0.0
  file: /home/modules/software/GPAW-setups/0.9.20000/S.PBE.gz
  compensation charges: gauss, rc=0.24, lmax=2
  cutoffs: 1.77(filt), 1.66(core),
  valence states:
                energy  radius
    3s(2.00)   -17.254   0.974
    3p(4.00)    -7.008   0.979
    *s           9.957   0.974
    *p          20.203   0.979
    *d           0.000   0.900

  LCAO basis set for S:
    Name: dzp
    File: /home/modules/software/GPAW-setups/0.9.20000/S.dzp.basis.gz
    Number of radial functions: 5
    Number of spherical harmonics: 13
      l=0, rc=5.5156 Bohr: 3s-sz confined orbital
      l=1, rc=6.9375 Bohr: 3p-sz confined orbital
      l=0, rc=3.0469 Bohr: 3s-dz split-valence wave
      l=1, rc=3.9375 Bohr: 3p-dz split-valence wave
      l=2, rc=6.9375 Bohr: d-type Gaussian polarization

Reference energy: -131849.312427

Spin-paired calculation

Convergence criteria:
 Maximum [total energy] change in last 3 cyles: 0.0005 eV / electron
 Maximum integral of absolute [dens]ity change: 0.0001 electrons / valence electron
 Maximum integral of absolute [eigenst]ate change: 4e-08 eV^2 / valence electron
 Maximum number of scf [iter]ations: 333
 (Square brackets indicate name in SCF output, whereas a 'c' in
 the SCF output indicates the quantity has converged.)

Symmetries present (total): 1

  ( 1  0  0)
  ( 0  1  0)
  ( 0  0  1)

30 k-points
30 k-points in the irreducible part of the Brillouin zone
       k-points in crystal coordinates                weights
   0:     0.00000000    0.00000000    0.00000000       0.03333333
   1:     0.05000000   -0.05000000    0.00000000       0.03333333
   2:     0.10000000   -0.10000000    0.00000000       0.03333333
   3:     0.15000000   -0.15000000    0.00000000       0.03333333
   4:     0.20000000   -0.20000000    0.00000000       0.03333333
   5:     0.25000000   -0.25000000    0.00000000       0.03333333
   6:     0.30000000   -0.30000000    0.00000000       0.03333333
   7:     0.35000000   -0.35000000    0.00000000       0.03333333
   8:     0.40000000   -0.40000000    0.00000000       0.03333333
   9:     0.45000000   -0.45000000    0.00000000       0.03333333
          ...
  29:     0.00000000    0.00000000    0.00000000       0.03333333

Wave functions: Plane wave expansion
  Cutoff energy: 500.000 eV
  Number of coefficients (min, max): 9556, 9668
  Pulay-stress correction: 0.000000 eV/Ang^3 (de/decut=0.000000)
  Using FFTW library
  ScaLapack parameters: grid=1x1, blocksize=None
  Wavefunction extrapolation:
    Improved wavefunction reuse through dual PAW basis 

Occupation numbers: Fermi-Dirac: width=0.0100 eV
 

Eigensolver
   Davidson(niter=2) 

No density mixing

XC parameters: PBE with 2 nearest neighbor stencil

Memory estimate:
  Process memory now: 206.09 MiB
  Calculator: 246.06 MiB
    Density: 32.72 MiB
      Arrays: 14.40 MiB
      Localized functions: 12.79 MiB
      Mixer: 5.54 MiB
    Hamiltonian: 9.72 MiB
      Arrays: 9.41 MiB
      XC: 0.00 MiB
      Poisson: 0.00 MiB
      vbar: 0.31 MiB
    Wavefunctions: 203.62 MiB
      Arrays psit_nG: 146.05 MiB
      Eigensolver: 5.77 MiB
      Projections: 0.66 MiB
      Projectors: 43.94 MiB
      PW-descriptor: 7.19 MiB

Total number of cores used: 1

Number of atoms: 3
Number of atomic orbitals: 55
Number of bands in calculation: 33
Number of valence electrons: 26
Bands to converge: 23

... initialized

Initializing position-dependent things.

Creating initial wave functions:
  33 bands from LCAO basis set

                     
                     
                     
                     
            S        
                     
       Mo            
                     
            S        
                     
                     
                     
                     

Positions:
   0 Mo     0.000000    0.000000   21.563500    ( 0.0000,  0.0000,  0.0000)
   1 S      1.592000    0.919142   23.127000    ( 0.0000,  0.0000,  0.0000)
   2 S      1.592000    0.919142   20.000000    ( 0.0000,  0.0000,  0.0000)

Unit cell:
           periodic     x           y           z      points  spacing
  1. axis:    yes    3.184000    0.000000    0.000000    18     0.1532
  2. axis:    yes   -1.592000    2.757425    0.000000    18     0.1532
  3. axis:    no     0.000000   -0.000000   43.127000   224     0.1925

  Lengths:   3.184000   3.184000  43.127000
  Angles:   90.000000  90.000000 120.000000

Effective grid spacing dv^(1/3) = 0.1734

     iter     time        total  log10-change:
                         energy  eigst   dens
iter:   1 21:47:38   -21.174344  +0.61       c
iter:   2 21:47:51   -21.207494  +0.03       c
iter:   3 21:48:03   -21.211714  -0.39       c
iter:   4 21:48:15   -21.212411c -0.97       c
iter:   5 21:48:28   -21.212541c -1.27       c
iter:   6 21:48:40   -21.212568c -1.96       c
iter:   7 21:48:52   -21.212574c -2.07       c
iter:   8 21:49:05   -21.212575c -3.13       c
iter:   9 21:49:17   -21.212575c -3.27       c
iter:  10 21:49:29   -21.212575c -3.74       c
iter:  11 21:49:42   -21.212575c -3.70       c
iter:  12 21:49:54   -21.212575c -3.52       c
iter:  13 21:50:06   -21.212575c -3.77       c
iter:  14 21:50:19   -21.212575c -4.09       c
iter:  15 21:50:31   -21.212575c -4.52       c
iter:  16 21:50:43   -21.212575c -4.93       c
iter:  17 21:50:56   -21.212575c -5.35       c
iter:  18 21:51:08   -21.212575c -5.74       c
iter:  19 21:51:20   -21.212575c -6.12       c
iter:  20 21:51:33   -21.212575c -6.48       c
iter:  21 21:51:45   -21.212575c -6.85       c
iter:  22 21:51:57   -21.212575c -7.19       c
iter:  23 21:52:09   -21.212575c -7.57c      c

Converged after 23 iterations.

Dipole moment: (3.413934, -1.971036, 0.000000) |e|*Ang

Energy contributions relative to reference atoms: (reference = -131849.312427)

Kinetic:         -1.699741
Potential:       -4.143399
External:        +0.000000
XC:             -15.230647
Entropy (-ST):   -0.000000
Local:           -0.138789
--------------------------
Free energy:    -21.212575
Extrapolated:   -21.212575

Showing only first 2 kpts
 Kpt  Band  Eigenvalues  Occupancy
  0    11     -5.52011    2.00000
  0    12     -4.04657    2.00000
  0    13     -1.29385    0.00000
  0    14     -1.29385    0.00000

  1    11     -5.33578    2.00000
  1    12     -4.06312    2.00000
  1    13     -1.35220    0.00000
  1    14     -1.22692    0.00000


Fermi level: -3.22135

Gap: 1.647 eV
Transition (v -> c):
  (s=0, k=0, n=12, [0.00, 0.00, 0.00]) -> (s=0, k=16, n=13, [0.33, -0.67, 0.00])
