
  ___ ___ ___ _ _ _  
 |   |   |_  | | | | 
 | | | | | . | | | | 
 |__ |  _|___|_____|  22.1.1b1
 |___|_|             

User:   s173965@slid.fysik.dtu.dk
Date:   Mon May  9 11:50:06 2022
Arch:   x86_64
Pid:    8611
CWD:    /home/niflheim/s173965/dft-superfluids/independent_calculations
Python: 3.8.6
gpaw:   /home/niflheim/s173965/venv/gpaw/gpaw (a6784661f4)
_gpaw:  /home/niflheim/s173965/venv/gpaw/build/lib.linux-x86_64-broadwell-3.8/
        _gpaw.cpython-38-x86_64-linux-gnu.so (a6784661f4)
ase:    /home/niflheim/s173965/venv/ase/ase (version 3.23.0b1-1865c9075a)
numpy:  /home/modules/software/SciPy-bundle/2020.11-foss-2020b/lib/python3.8/site-packages/numpy (version 1.19.4)
scipy:  /home/modules/software/SciPy-bundle/2020.11-foss-2020b/lib/python3.8/site-packages/scipy (version 1.5.4)
libxc:  4.3.4
units:  Angstrom and eV
cores: 1
OpenMP: False
OMP_NUM_THREADS: 1

Reading from out/gs_MoSe2_xc=LDA_bs.gpw
Read dipole, energy, free_energy, magmom, magmoms
Reading input parameters:
  kpts: {gamma: True,
         size: [30, 30, 1]}
  mode: {ecut: 500.0,
         name: pw}
  occupations: {name: fermi-dirac,
                width: 0.01}

Initialize ...

Mo-setup:
  name: Molybdenum
  id: ac24daaf086600a00ce6d19a74574df1
  Z: 42.0
  valence: 14
  core: 28
  charge: 0.0
  file: /home/modules/software/GPAW-setups/0.9.20000/Mo.LDA.gz
  compensation charges: gauss, rc=0.38, lmax=2
  cutoffs: 2.16(filt), 1.42(core),
  valence states:
                energy  radius
    4s(2.00)   -64.384   1.238
    5s(1.00)    -4.319   1.238
    4p(6.00)   -38.595   1.296
    5p(0.00)    -1.161   1.296
    4d(5.00)    -3.933   1.296
    *d          23.278   1.296

  Using partial waves for Mo as LCAO basis

Se-setup:
  name: Selenium
  id: 32bc71fdf0f79e2eec071fc2341e94af
  Z: 34.0
  valence: 6
  core: 28
  charge: 0.0
  file: /home/modules/software/GPAW-setups/0.9.20000/Se.LDA.gz
  compensation charges: gauss, rc=0.27, lmax=2
  cutoffs: 1.77(filt), 2.67(core),
  valence states:
                energy  radius
    4s(2.00)   -17.472   0.847
    4p(4.00)    -6.656   1.005
    *s           9.739   0.847
    *p          20.555   1.005
    *d           0.000   0.847

  Using partial waves for Se as LCAO basis

Reference energy: -242054.160319

Spin-paired calculation

Convergence criteria:
 Maximum [total energy] change in last 3 cyles: 0.0005 eV / electron
 Maximum integral of absolute [dens]ity change: 0.0001 electrons / valence electron
 Maximum integral of absolute [eigenst]ate change: 4e-08 eV^2 / valence electron
 Maximum number of scf [iter]ations: 333
 (Square brackets indicate name in SCF output, whereas a 'c' in
 the SCF output indicates the quantity has converged.)

Symmetries present (total): 12

  ( 1  1  0)  ( 1  1  0)  ( 1  0  0)  ( 1  0  0)  ( 0  1  0)  ( 0  1  0)
  ( 0 -1  0)  ( 0 -1  0)  ( 0  1  0)  ( 0  1  0)  (-1 -1  0)  (-1 -1  0)
  ( 0  0  1)  ( 0  0 -1)  ( 0  0  1)  ( 0  0 -1)  ( 0  0  1)  ( 0  0 -1)

  ( 0 -1  0)  ( 0 -1  0)  (-1  0  0)  (-1  0  0)  (-1 -1  0)  (-1 -1  0)
  (-1  0  0)  (-1  0  0)  ( 1  1  0)  ( 1  1  0)  ( 1  0  0)  ( 1  0  0)
  ( 0  0  1)  ( 0  0 -1)  ( 0  0  1)  ( 0  0 -1)  ( 0  0  1)  ( 0  0 -1)

900 k-points: 30 x 30 x 1 Monkhorst-Pack grid + [1/60,1/60,0.000000]
91 k-points in the irreducible part of the Brillouin zone
       k-points in crystal coordinates                weights
   0:     0.00000000    0.00000000    0.00000000          1/900
   1:     0.03333333    0.00000000    0.00000000          6/900
   2:     0.06666667   -0.03333333    0.00000000          6/900
   3:     0.06666667    0.00000000    0.00000000          6/900
   4:     0.10000000   -0.03333333    0.00000000         12/900
   5:     0.10000000    0.00000000    0.00000000          6/900
   6:     0.13333333   -0.06666667    0.00000000          6/900
   7:     0.13333333   -0.03333333    0.00000000         12/900
   8:     0.13333333    0.00000000    0.00000000          6/900
   9:     0.16666667   -0.06666667    0.00000000         12/900
          ...
  90:     0.50000000    0.50000000    0.00000000          3/900

Wave functions: Plane wave expansion
  Cutoff energy: 500.000 eV
  Number of coefficients (min, max): 10347, 10644
  Pulay-stress correction: 0.000000 eV/Ang^3 (de/decut=0.000000)
  Using FFTW library
  ScaLapack parameters: grid=1x1, blocksize=None
  Wavefunction extrapolation:
    Improved wavefunction reuse through dual PAW basis 

Occupation numbers: Fermi-Dirac: width=0.0100 eV
 

Eigensolver
   Davidson(niter=2) 

Densities:
  Coarse grid: 18*18*224 grid
  Fine grid: 36*36*448 grid
  Total Charge: 0.000000 

Density mixing:
  Method: separate
  Backend: pulay
  Linear mixing parameter: 0.05
  Mixing with 5 old densities
  Damping of long wave oscillations: 50 

Hamiltonian:
  XC and Coulomb potentials evaluated on a 36*36*448 grid
  Using the LDA Exchange-Correlation functional
  External potential:
    NoExternalPotential
 

Memory estimate:
  Process memory now: 169.39 MiB
  Calculator: 507.87 MiB
    Density: 33.87 MiB
      Arrays: 14.40 MiB
      Localized functions: 13.93 MiB
      Mixer: 5.54 MiB
    Hamiltonian: 9.75 MiB
      Arrays: 9.41 MiB
      XC: 0.00 MiB
      Poisson: 0.00 MiB
      vbar: 0.34 MiB
    Wavefunctions: 464.24 MiB
      Arrays psit_nG: 295.59 MiB
      Eigensolver: 4.12 MiB
      Projections: 1.22 MiB
      Projectors: 145.76 MiB
      PW-descriptor: 17.55 MiB

Total number of cores used: 1

Number of atoms: 3
Number of atomic orbitals: 21
Number of bands in calculation: 20
Number of valence electrons: 26
Bands to converge: occupied

... initialized

Input parameters:
  basis: dzp
  convergence: {bands: -8}
  fixdensity: True
  kpts: {cell: Cell([[3.3197487878576672, 0.0, 0.0], [-1.6598743939288336, 2.8749867844673367, 0.0], [0.0, 0.0, 0.0]]),
         kpts: [[0.         0.         0.        ]
 [0.02380952 0.         0.        ]
 [0.04761905 0.         0.        ]
 ...
 [0.02564103 0.02564103 0.        ]
 [0.01282051 0.01282051 0.        ]
 [0.         0.         0.        ]],
         labelseq: GMKG,
         special_points: {'G': array([0., 0., 0.]), 'M': array([0.5, 0. , 0. ]), 'K': array([0.33333333, 0.33333333, 0.        ])}}
  nbands: -16
  symmetry: off

Initialize ...

Mo-setup:
  name: Molybdenum
  id: ac24daaf086600a00ce6d19a74574df1
  Z: 42.0
  valence: 14
  core: 28
  charge: 0.0
  file: /home/modules/software/GPAW-setups/0.9.20000/Mo.LDA.gz
  compensation charges: gauss, rc=0.38, lmax=2
  cutoffs: 2.16(filt), 1.42(core),
  valence states:
                energy  radius
    4s(2.00)   -64.384   1.238
    5s(1.00)    -4.319   1.238
    4p(6.00)   -38.595   1.296
    5p(0.00)    -1.161   1.296
    4d(5.00)    -3.933   1.296
    *d          23.278   1.296

  LCAO basis set for Mo:
    Name: dzp
    File: /home/modules/software/GPAW-setups/0.9.20000/Mo.dzp.basis.gz
    Number of radial functions: 11
    Number of spherical harmonics: 29
      l=0, rc=3.5469 Bohr: 4s-sz confined orbital
      l=0, rc=10.0469 Bohr: 5s-sz confined orbital
      l=1, rc=4.0781 Bohr: 4p-sz confined orbital
      l=1, rc=14.0938 Bohr: 5p-sz confined orbital
      l=2, rc=7.2031 Bohr: 4d-sz confined orbital
      l=0, rc=2.1250 Bohr: 4s-dz split-valence wave
      l=0, rc=6.1250 Bohr: 5s-dz split-valence wave
      l=1, rc=2.5469 Bohr: 4p-dz split-valence wave
      l=1, rc=8.7656 Bohr: 5p-dz split-valence wave
      l=2, rc=4.2344 Bohr: 4d-dz split-valence wave
      l=1, rc=10.0469 Bohr: p-type Gaussian polarization

Se-setup:
  name: Selenium
  id: 32bc71fdf0f79e2eec071fc2341e94af
  Z: 34.0
  valence: 6
  core: 28
  charge: 0.0
  file: /home/modules/software/GPAW-setups/0.9.20000/Se.LDA.gz
  compensation charges: gauss, rc=0.27, lmax=2
  cutoffs: 1.77(filt), 2.67(core),
  valence states:
                energy  radius
    4s(2.00)   -17.472   0.847
    4p(4.00)    -6.656   1.005
    *s           9.739   0.847
    *p          20.555   1.005
    *d           0.000   0.847

  LCAO basis set for Se:
    Name: dzp
    File: /home/modules/software/GPAW-setups/0.9.20000/Se.dzp.basis.gz
    Number of radial functions: 5
    Number of spherical harmonics: 13
      l=0, rc=5.7344 Bohr: 4s-sz confined orbital
      l=1, rc=7.2656 Bohr: 4p-sz confined orbital
      l=0, rc=3.1875 Bohr: 4s-dz split-valence wave
      l=1, rc=4.2188 Bohr: 4p-dz split-valence wave
      l=2, rc=7.2656 Bohr: d-type Gaussian polarization

Reference energy: -242054.160319

Spin-paired calculation

Convergence criteria:
 Maximum [total energy] change in last 3 cyles: 0.0005 eV / electron
 Maximum integral of absolute [dens]ity change: 0.0001 electrons / valence electron
 Maximum integral of absolute [eigenst]ate change: 4e-08 eV^2 / valence electron
 Maximum number of scf [iter]ations: 333
 (Square brackets indicate name in SCF output, whereas a 'c' in
 the SCF output indicates the quantity has converged.)

Symmetries present (total): 1

  ( 1  0  0)
  ( 0  1  0)
  ( 0  0  1)

60 k-points
60 k-points in the irreducible part of the Brillouin zone
       k-points in crystal coordinates                weights
   0:     0.00000000    0.00000000    0.00000000       0.01666667
   1:     0.02380952    0.00000000    0.00000000       0.01666667
   2:     0.04761905    0.00000000    0.00000000       0.01666667
   3:     0.07142857    0.00000000    0.00000000       0.01666667
   4:     0.09523810    0.00000000    0.00000000       0.01666667
   5:     0.11904762    0.00000000    0.00000000       0.01666667
   6:     0.14285714    0.00000000    0.00000000       0.01666667
   7:     0.16666667    0.00000000    0.00000000       0.01666667
   8:     0.19047619    0.00000000    0.00000000       0.01666667
   9:     0.21428571    0.00000000    0.00000000       0.01666667
          ...
  59:     0.00000000    0.00000000    0.00000000       0.01666667

Wave functions: Plane wave expansion
  Cutoff energy: 500.000 eV
  Number of coefficients (min, max): 10341, 10644
  Pulay-stress correction: 0.000000 eV/Ang^3 (de/decut=0.000000)
  Using FFTW library
  ScaLapack parameters: grid=1x1, blocksize=None
  Wavefunction extrapolation:
    Improved wavefunction reuse through dual PAW basis 

Occupation numbers: Fermi-Dirac: width=0.0100 eV
 

Eigensolver
   Davidson(niter=2) 

No density mixing

Memory estimate:
  Process memory now: 169.39 MiB
  Calculator: 441.57 MiB
    Density: 33.87 MiB
      Arrays: 14.40 MiB
      Localized functions: 13.93 MiB
      Mixer: 5.54 MiB
    Hamiltonian: 9.75 MiB
      Arrays: 9.41 MiB
      XC: 0.00 MiB
      Poisson: 0.00 MiB
      vbar: 0.34 MiB
    Wavefunctions: 397.95 MiB
      Arrays psit_nG: 282.60 MiB
      Eigensolver: 5.65 MiB
      Projections: 1.17 MiB
      Projectors: 96.02 MiB
      PW-descriptor: 12.51 MiB

Total number of cores used: 1

Number of atoms: 3
Number of atomic orbitals: 55
Number of bands in calculation: 29
Number of valence electrons: 26
Bands to converge: 21

... initialized

Initializing position-dependent things.

Creating initial wave functions:
  29 bands from LCAO basis set

                     
                     
                     
                     
            Se       
                     
       Mo            
                     
            Se       
                     
                     
                     
                     

Positions:
   0 Mo     0.000000    0.000000   21.669029    ( 0.0000,  0.0000,  0.0000)
   1 Se     1.659874    0.958329   23.338059    ( 0.0000,  0.0000,  0.0000)
   2 Se     1.659874    0.958329   20.000000    ( 0.0000,  0.0000,  0.0000)

Unit cell:
           periodic     x           y           z      points  spacing
  1. axis:    yes    3.319749    0.000000    0.000000    18     0.1597
  2. axis:    yes   -1.659874    2.874987    0.000000    18     0.1597
  3. axis:    yes    0.000000    0.000000   43.338059   224     0.1935

  Lengths:   3.319749   3.319749  43.338059
  Angles:   90.000000  90.000000 120.000000

Effective grid spacing dv^(1/3) = 0.1786

     iter     time        total  log10-change:
                         energy  eigst   dens
iter:   1 11:50:53   -21.918814  +0.38       c
iter:   2 11:51:15   -21.950997  -0.20       c
iter:   3 11:51:37   -21.955745  -0.64       c
iter:   4 11:51:59   -21.956616c -1.15       c
iter:   5 11:52:21   -21.956794c -1.57       c
iter:   6 11:52:43   -21.956834c -1.94       c
iter:   7 11:53:05   -21.956844c -2.64       c
iter:   8 11:53:26   -21.956846c -3.67       c
iter:   9 11:53:48   -21.956847c -4.45       c
iter:  10 11:54:10   -21.956847c -5.10       c
iter:  11 11:54:32   -21.956847c -5.68       c
iter:  12 11:54:54   -21.956847c -6.21       c
iter:  13 11:55:16   -21.956848c -6.70       c
iter:  14 11:55:38   -21.956848c -7.16       c
iter:  15 11:56:00   -21.956848c -7.59c      c

Converged after 15 iterations.

Dipole moment: (4.178249, -2.412313, -0.000000) |e|*Ang

Energy contributions relative to reference atoms: (reference = -242054.160319)

Kinetic:         +0.738091
Potential:       -5.757253
External:        +0.000000
XC:             -16.679793
Entropy (-ST):   -0.000000
Local:           -0.257892
--------------------------
Free energy:    -21.956848
Extrapolated:   -21.956848

Showing only first 2 kpts
 Kpt  Band  Eigenvalues  Occupancy
  0    11     -4.79991    2.00000
  0    12     -3.90437    2.00000
  0    13     -0.84054    0.00000
  0    14     -0.84054    0.00000

  1    11     -4.77919    2.00000
  1    12     -3.90625    2.00000
  1    13     -0.86900    0.00000
  1    14     -0.82807    0.00000


Fermi level: -2.94739

Gap: 1.436 eV
Transition (v -> c):
  (s=0, k=33, n=12, [0.33, 0.33, 0.00]) -> (s=0, k=33, n=13, [0.33, 0.33, 0.00])
