
  ___ ___ ___ _ _ _  
 |   |   |_  | | | | 
 | | | | | . | | | | 
 |__ |  _|___|_____|  22.1.1b1
 |___|_|             

User:   s183774@x067.nifl.fysik.dtu.dk
Date:   Thu May 12 16:18:48 2022
Arch:   x86_64
Pid:    26461
CWD:    /home/niflheim/s183774/dft-superfluids/bandstructure/super_duper
Python: 3.8.6
gpaw:   /home/niflheim/s183774/venv/gpaw/gpaw (29f11f9659)
_gpaw:  /home/niflheim/s183774/venv/gpaw/build/lib.linux-x86_64-broadwell-3.8/
        _gpaw.cpython-38-x86_64-linux-gnu.so (29f11f9659)
ase:    /home/niflheim/s183774/venv/ase/ase (version 3.23.0b1-1865c9075a)
numpy:  /home/modules/software/SciPy-bundle/2020.11-foss-2020b/lib/python3.8/site-packages/numpy (version 1.19.4)
scipy:  /home/modules/software/SciPy-bundle/2020.11-foss-2020b/lib/python3.8/site-packages/scipy (version 1.5.4)
libxc:  4.3.4
units:  Angstrom and eV
cores: 24
OpenMP: False
OMP_NUM_THREADS: 1

Reading from ./out/WSe2_PBE_ecut_500_kp_30_gs_rec_latt.gpw
Read dipole, energy, free_energy, magmom, magmoms
Reading input parameters:
  kpts: {gamma: True,
         size: [30, 30, 1]}
  mode: {ecut: 500.0,
         name: pw}
  occupations: {name: fermi-dirac,
                width: 0.01}
  xc: PBE

Initialize ...

W-setup:
  name: Tungsten
  id: 3ed563b7d19992259c4d7db283f2ff78
  Z: 74.0
  valence: 14
  core: 60
  charge: 0.0
  file: /home/modules/software/GPAW-setups/0.9.20000/W.PBE.gz
  compensation charges: gauss, rc=0.40, lmax=2
  cutoffs: 2.36(filt), 3.02(core),
  valence states:
                energy  radius
    5s(2.00)   -78.830   1.344
    6s(2.00)    -5.697   1.344
    5p(6.00)   -43.233   1.355
    6p(0.00)    -1.367   1.355
    5d(4.00)    -4.494   1.228
    *d          22.717   1.228

  Using partial waves for W as LCAO basis

Se-setup:
  name: Selenium
  id: 2336a0774a38175ff9db42ee3890f88a
  Z: 34.0
  valence: 6
  core: 28
  charge: 0.0
  file: /home/modules/software/GPAW-setups/0.9.20000/Se.PBE.gz
  compensation charges: gauss, rc=0.27, lmax=2
  cutoffs: 1.77(filt), 2.67(core),
  valence states:
                energy  radius
    4s(2.00)   -17.277   0.847
    4p(4.00)    -6.512   1.005
    *s           9.935   0.847
    *p          20.699   1.005
    *d           0.000   0.847

  Using partial waves for Se as LCAO basis

Reference energy: -570978.735916

Spin-paired calculation

Convergence criteria:
 Maximum [total energy] change in last 3 cyles: 0.0005 eV / electron
 Maximum integral of absolute [dens]ity change: 0.0001 electrons / valence electron
 Maximum integral of absolute [eigenst]ate change: 4e-08 eV^2 / valence electron
 Maximum number of scf [iter]ations: 333
 (Square brackets indicate name in SCF output, whereas a 'c' in
 the SCF output indicates the quantity has converged.)

Symmetries present (total): 12

  ( 1  1  0)  ( 1  1  0)  ( 1  0  0)  ( 1  0  0)  ( 0  1  0)  ( 0  1  0)
  ( 0 -1  0)  ( 0 -1  0)  ( 0  1  0)  ( 0  1  0)  (-1 -1  0)  (-1 -1  0)
  ( 0  0  1)  ( 0  0 -1)  ( 0  0  1)  ( 0  0 -1)  ( 0  0  1)  ( 0  0 -1)

  ( 0 -1  0)  ( 0 -1  0)  (-1  0  0)  (-1  0  0)  (-1 -1  0)  (-1 -1  0)
  (-1  0  0)  (-1  0  0)  ( 1  1  0)  ( 1  1  0)  ( 1  0  0)  ( 1  0  0)
  ( 0  0  1)  ( 0  0 -1)  ( 0  0  1)  ( 0  0 -1)  ( 0  0  1)  ( 0  0 -1)

900 k-points: 30 x 30 x 1 Monkhorst-Pack grid + [1/60,1/60,0.000000]
91 k-points in the irreducible part of the Brillouin zone
       k-points in crystal coordinates                weights
   0:     0.00000000    0.00000000    0.00000000          1/900
   1:     0.03333333    0.00000000    0.00000000          6/900
   2:     0.06666667   -0.03333333    0.00000000          6/900
   3:     0.06666667    0.00000000    0.00000000          6/900
   4:     0.10000000   -0.03333333    0.00000000         12/900
   5:     0.10000000    0.00000000    0.00000000          6/900
   6:     0.13333333   -0.06666667    0.00000000          6/900
   7:     0.13333333   -0.03333333    0.00000000         12/900
   8:     0.13333333    0.00000000    0.00000000          6/900
   9:     0.16666667   -0.06666667    0.00000000         12/900
          ...
  90:     0.50000000    0.50000000    0.00000000          3/900

Wave functions: Plane wave expansion
  Cutoff energy: 500.000 eV
  Number of coefficients (min, max): 10308, 10590
  Pulay-stress correction: 0.000000 eV/Ang^3 (de/decut=0.000000)
  Using FFTW library
  ScaLapack parameters: grid=1x1, blocksize=None
  Wavefunction extrapolation:
    Improved wavefunction reuse through dual PAW basis 

Occupation numbers: Fermi-Dirac: width=0.0100 eV
 

Eigensolver
   Davidson(niter=2) 

Densities:
  Coarse grid: 18*18*224 grid
  Fine grid: 36*36*448 grid
  Total Charge: 0.000000 

Density mixing:
  Method: separate
  Backend: pulay
  Linear mixing parameter: 0.05
  Mixing with 5 old densities
  Damping of long wave oscillations: 50 

Hamiltonian:
  XC and Coulomb potentials evaluated on a 36*36*448 grid
  Using the PBE Exchange-Correlation functional
  External potential:
    NoExternalPotential
 

XC parameters: PBE with 2 nearest neighbor stencil

Memory estimate:
  Process memory now: 311.64 MiB
  Calculator: 65.36 MiB
    Density: 33.79 MiB
      Arrays: 14.40 MiB
      Localized functions: 13.86 MiB
      Mixer: 5.54 MiB
    Hamiltonian: 9.75 MiB
      Arrays: 9.41 MiB
      XC: 0.00 MiB
      Poisson: 0.00 MiB
      vbar: 0.34 MiB
    Wavefunctions: 21.81 MiB
      Arrays psit_nG: 9.70 MiB
      Eigensolver: 4.10 MiB
      Projections: 0.04 MiB
      Projectors: 4.72 MiB
      PW-descriptor: 3.25 MiB

Total number of cores used: 24
Parallelization over k-points: 24

Number of atoms: 3
Number of atomic orbitals: 21
Number of bands in calculation: 20
Number of valence electrons: 26
Bands to converge: occupied

... initialized

Input parameters:
  basis: dzp
  convergence: {bands: -13}
  fixdensity: True
  kpts: {cell: Cell([[3.3189999999999986, 0.0, 0.0], [-1.6594999999999993, -2.8743383151605504, 0.0], [0.0, 0.0, 0.0]]),
         kpts: [[ 0.33333333 -0.66666667  0.        ]
 [ 0.32758621 -0.65517241  0.        ]
 [ 0.32183908 -0.64367816  0.        ]
 ...
 [ 0.01149425 -0.02298851  0.        ]
 [ 0.00574713 -0.01149425  0.        ]
 [ 0.          0.          0.        ]],
         labelseq: KG,
         special_points: {'G': array([0., 0., 0.]), 'M': array([ 0.5, -0.5,  0. ]), 'K': array([ 0.33333333, -0.66666667,  0.        ])}}
  nbands: -26
  symmetry: off

Initialize ...

W-setup:
  name: Tungsten
  id: 3ed563b7d19992259c4d7db283f2ff78
  Z: 74.0
  valence: 14
  core: 60
  charge: 0.0
  file: /home/modules/software/GPAW-setups/0.9.20000/W.PBE.gz
  compensation charges: gauss, rc=0.40, lmax=2
  cutoffs: 2.36(filt), 3.02(core),
  valence states:
                energy  radius
    5s(2.00)   -78.830   1.344
    6s(2.00)    -5.697   1.344
    5p(6.00)   -43.233   1.355
    6p(0.00)    -1.367   1.355
    5d(4.00)    -4.494   1.228
    *d          22.717   1.228

  LCAO basis set for W:
    Name: dzp
    File: /home/modules/software/GPAW-setups/0.9.20000/W.dzp.basis.gz
    Number of radial functions: 11
    Number of spherical harmonics: 29
      l=0, rc=3.3438 Bohr: 5s-sz confined orbital
      l=0, rc=8.9844 Bohr: 6s-sz confined orbital
      l=1, rc=4.0156 Bohr: 5p-sz confined orbital
      l=1, rc=12.9219 Bohr: 6p-sz confined orbital
      l=2, rc=7.1562 Bohr: 5d-sz confined orbital
      l=0, rc=2.1562 Bohr: 5s-dz split-valence wave
      l=0, rc=5.3906 Bohr: 6s-dz split-valence wave
      l=1, rc=2.5625 Bohr: 5p-dz split-valence wave
      l=1, rc=7.9844 Bohr: 6p-dz split-valence wave
      l=2, rc=4.1719 Bohr: 5d-dz split-valence wave
      l=1, rc=8.9844 Bohr: p-type Gaussian polarization

Se-setup:
  name: Selenium
  id: 2336a0774a38175ff9db42ee3890f88a
  Z: 34.0
  valence: 6
  core: 28
  charge: 0.0
  file: /home/modules/software/GPAW-setups/0.9.20000/Se.PBE.gz
  compensation charges: gauss, rc=0.27, lmax=2
  cutoffs: 1.77(filt), 2.67(core),
  valence states:
                energy  radius
    4s(2.00)   -17.277   0.847
    4p(4.00)    -6.512   1.005
    *s           9.935   0.847
    *p          20.699   1.005
    *d           0.000   0.847

  LCAO basis set for Se:
    Name: dzp
    File: /home/modules/software/GPAW-setups/0.9.20000/Se.dzp.basis.gz
    Number of radial functions: 5
    Number of spherical harmonics: 13
      l=0, rc=5.7344 Bohr: 4s-sz confined orbital
      l=1, rc=7.2656 Bohr: 4p-sz confined orbital
      l=0, rc=3.1875 Bohr: 4s-dz split-valence wave
      l=1, rc=4.2188 Bohr: 4p-dz split-valence wave
      l=2, rc=7.2656 Bohr: d-type Gaussian polarization

Reference energy: -570978.735916

Spin-paired calculation

Convergence criteria:
 Maximum [total energy] change in last 3 cyles: 0.0005 eV / electron
 Maximum integral of absolute [dens]ity change: 0.0001 electrons / valence electron
 Maximum integral of absolute [eigenst]ate change: 4e-08 eV^2 / valence electron
 Maximum number of scf [iter]ations: 333
 (Square brackets indicate name in SCF output, whereas a 'c' in
 the SCF output indicates the quantity has converged.)

Symmetries present (total): 1

  ( 1  0  0)
  ( 0  1  0)
  ( 0  0  1)

59 k-points
59 k-points in the irreducible part of the Brillouin zone
       k-points in crystal coordinates                weights
   0:     0.33333333   -0.66666667    0.00000000       0.01694915
   1:     0.32758621   -0.65517241    0.00000000       0.01694915
   2:     0.32183908   -0.64367816    0.00000000       0.01694915
   3:     0.31609195   -0.63218391    0.00000000       0.01694915
   4:     0.31034483   -0.62068966    0.00000000       0.01694915
   5:     0.30459770   -0.60919540    0.00000000       0.01694915
   6:     0.29885057   -0.59770115    0.00000000       0.01694915
   7:     0.29310345   -0.58620690    0.00000000       0.01694915
   8:     0.28735632   -0.57471264    0.00000000       0.01694915
   9:     0.28160920   -0.56321839    0.00000000       0.01694915
          ...
  58:     0.00000000    0.00000000    0.00000000       0.01694915

Wave functions: Plane wave expansion
  Cutoff energy: 500.000 eV
  Number of coefficients (min, max): 10292, 10590
  Pulay-stress correction: 0.000000 eV/Ang^3 (de/decut=0.000000)
  Using FFTW library
  ScaLapack parameters: grid=1x1, blocksize=None
  Wavefunction extrapolation:
    Improved wavefunction reuse through dual PAW basis 

Occupation numbers: Fermi-Dirac: width=0.0100 eV
 

Eigensolver
   Davidson(niter=2) 

Densities:
  Coarse grid: 18*18*224 grid
  Fine grid: 36*36*448 grid
  Total Charge: 0.000000 

No density mixing

Hamiltonian:
  XC and Coulomb potentials evaluated on a 36*36*448 grid
  Using the PBE Exchange-Correlation functional
  External potential:
    NoExternalPotential
 

XC parameters: PBE with 2 nearest neighbor stencil

Memory estimate:
  Process memory now: 311.70 MiB
  Calculator: 60.78 MiB
    Density: 16.90 MiB
      Arrays: 7.20 MiB
      Localized functions: 6.93 MiB
      Mixer: 2.77 MiB
    Hamiltonian: 4.88 MiB
      Arrays: 4.71 MiB
      XC: 0.00 MiB
      Poisson: 0.00 MiB
      vbar: 0.17 MiB
    Wavefunctions: 39.01 MiB
      Arrays psit_nG: 25.21 MiB
      Eigensolver: 7.34 MiB
      Projections: 0.05 MiB
      Projectors: 3.23 MiB
      PW-descriptor: 3.17 MiB

Total number of cores used: 24
Parallelization over k-points: 12
Domain decomposition: 1 x 1 x 2

Number of atoms: 3
Number of atomic orbitals: 55
Number of bands in calculation: 39
Number of valence electrons: 26
Bands to converge: 26

... initialized

Initializing position-dependent things.

Creating initial wave functions:
  39 bands from LCAO basis set

                     
                     
                     
                     
            Se       
                     
       W             
                     
            Se       
                     
                     
                     
                     

Positions:
   0 W      0.000000    0.000000   21.573000    ( 0.0000,  0.0000,  0.0000)
   1 Se     1.659500    0.958113   23.146000    ( 0.0000,  0.0000,  0.0000)
   2 Se     1.659500    0.958113   20.000000    ( 0.0000,  0.0000,  0.0000)

Unit cell:
           periodic     x           y           z      points  spacing
  1. axis:    yes    3.319000    0.000000    0.000000    18     0.1597
  2. axis:    yes   -1.659500    2.874338    0.000000    18     0.1597
  3. axis:    no     0.000000   -0.000000   43.146000   224     0.1926

  Lengths:   3.319000   3.319000  43.146000
  Angles:   90.000000  90.000000 120.000000

Effective grid spacing dv^(1/3) = 0.1783

     iter     time        total  log10-change:
                         energy  eigst   dens
iter:   1 16:18:54   -18.802143  +0.90       c
iter:   2 16:18:56   -18.807748  +0.77       c
iter:   3 16:18:57   -18.808127c +0.21       c
iter:   4 16:18:59   -18.808189c -0.20       c
iter:   5 16:19:00   -18.808202c -0.84       c
iter:   6 16:19:02   -18.808205c -1.43       c
iter:   7 16:19:04   -18.808206c -2.09       c
iter:   8 16:19:05   -18.808206c -2.88       c
iter:   9 16:19:07   -18.808206c -3.48       c
iter:  10 16:19:08   -18.808206c -4.07       c
iter:  11 16:19:10   -18.808206c -4.65       c
iter:  12 16:19:11   -18.808206c -5.18       c
iter:  13 16:19:13   -18.808206c -5.66       c
iter:  14 16:19:15   -18.808206c -6.14       c
iter:  15 16:19:16   -18.808206c -6.58       c
iter:  16 16:19:18   -18.808206c -7.00       c
iter:  17 16:19:19   -18.808206c -7.44c      c

Converged after 17 iterations.

Dipole moment: (4.082530, -2.357050, -0.000000) |e|*Ang

Energy contributions relative to reference atoms: (reference = -570978.735916)

Kinetic:        +38.190349
Potential:      -35.429627
External:        +0.000000
XC:             -21.482389
Entropy (-ST):   -0.000000
Local:           -0.086538
--------------------------
Free energy:    -18.808206
Extrapolated:   -18.808206

Showing only first 2 kpts
 Kpt  Band  Eigenvalues  Occupancy
  0    11     -5.30868    2.00000
  0    12     -3.32733    2.00000
  0    13     -1.99939    0.00000
  0    14      0.07726    0.00000

  1    11     -5.30630    2.00000
  1    12     -3.33253    2.00000
  1    13     -1.99213    0.00000
  1    14      0.07849    0.00000


Fermi level: -2.60465

Gap: 1.213 eV
Transition (v -> c):
  (s=0, k=58, n=12, [0.00, 0.00, 0.00]) -> (s=0, k=0, n=13, [0.33, -0.67, 0.00])
Timing:                              incl.     excl.
-----------------------------------------------------------
Hamiltonian:                         0.253     0.002   0.0% |
 Atomic:                             0.128     0.128   0.4% |
  XC Correction:                     0.000     0.000   0.0% |
 Calculate atomic Hamiltonians:      0.009     0.009   0.0% |
 Communicate:                        0.000     0.000   0.0% |
 Initialize Hamiltonian:             0.000     0.000   0.0% |
 Poisson:                            0.001     0.001   0.0% |
 XC 3D grid:                         0.112     0.112   0.4% |
LCAO initialization:                 2.421     0.879   2.8% ||
 LCAO eigensolver:                   0.352     0.000   0.0% |
  Calculate projections:             0.000     0.000   0.0% |
  DenseAtomicCorrection:             0.001     0.001   0.0% |
  Distribute overlap matrix:         0.026     0.026   0.1% |
  Orbital Layouts:                   0.006     0.006   0.0% |
  Potential matrix:                  0.313     0.313   1.0% |
  Sum over cells:                    0.005     0.005   0.0% |
 LCAO to grid:                       1.007     1.007   3.3% ||
 Set positions (LCAO WFS):           0.183     0.023   0.1% |
  Basic WFS set positions:           0.000     0.000   0.0% |
  Basis functions set positions:     0.000     0.000   0.0% |
  P tci:                             0.035     0.035   0.1% |
  ST tci:                            0.078     0.078   0.3% |
  mktci:                             0.046     0.046   0.1% |
PWDescriptor:                        0.042     0.042   0.1% |
Redistribute:                        0.000     0.000   0.0% |
SCF-cycle:                          26.917     5.676  18.4% |------|
 Davidson:                          21.192     2.190   7.1% |--|
  Apply H:                           3.628     3.519  11.4% |----|
   HMM T:                            0.110     0.110   0.4% |
  Subspace diag:                     4.625     0.010   0.0% |
   calc_h_matrix:                    4.050     0.427   1.4% ||
    Apply H:                         3.623     3.511  11.4% |----|
     HMM T:                          0.112     0.112   0.4% |
   diagonalize:                      0.048     0.048   0.2% |
   rotate_psi:                       0.517     0.517   1.7% ||
  calc. matrices:                    9.571     2.369   7.7% |--|
   Apply H:                          7.201     6.984  22.6% |--------|
    HMM T:                           0.217     0.217   0.7% |
  diagonalize:                       0.322     0.322   1.0% |
  rotate_psi:                        0.855     0.855   2.8% ||
 Orthonormalize:                     0.048     0.001   0.0% |
  calc_s_matrix:                     0.013     0.013   0.0% |
  inverse-cholesky:                  0.001     0.001   0.0% |
  projections:                       0.019     0.019   0.1% |
  rotate_psi_s:                      0.014     0.014   0.0% |
Set symmetry:                        0.051     0.051   0.2% |
Other:                               1.188     1.188   3.8% |-|
-----------------------------------------------------------
Total:                                        30.870 100.0%

Date: Thu May 12 16:19:19 2022
